Command:    /opt/schrodinger/suites2019-3/jaguar run cmp3_loner3.in -HOST localhost
Release:    2019-3
Exec:       /opt/schrodinger/suites2019-3/jaguar-v10.5/bin/Darwin-x86_64
Host:       haoyus-mbp.schrodinger.com
JobId:      haoyus-mbp-0-5db9ce48
JobDir:     /Users/hyu/.schrodinger/tmp/cmp3_loner3
Date:       Wed Oct 30 13:54:18 2019

Contents of /Users/hyu/.schrodinger/tmp/cmp3_loner3:
/Users/hyu/.schrodinger/tmp/cmp3_loner3/cmp3_loner3.recover
/Users/hyu/.schrodinger/tmp/cmp3_loner3/haoyus-mbp-0-5db9ce48.mpinodes
/Users/hyu/.schrodinger/tmp/cmp3_loner3/.write_dir.json
/Users/hyu/.schrodinger/tmp/cmp3_loner3/cmp3_loner3.log
/Users/hyu/.schrodinger/tmp/cmp3_loner3/haoyus-mbp-0-5db9ce48
/Users/hyu/.schrodinger/tmp/cmp3_loner3/cmp3_loner3.mae
/Users/hyu/.schrodinger/tmp/cmp3_loner3/cmp3_loner3.in
/Users/hyu/.schrodinger/tmp/cmp3_loner3/haoyus-mbp-0-5db9ce48.recover


The following structure properties were deleted from the input .mae file: /Users/hyu/.schrodinger/tmp/cmp3_loner3/cmp3_loner3.mae
i_m_Molecular_charge

Executing subprocess:
/opt/schrodinger/suites2019-3/jaguar-v10.5/bin/Darwin-x86_64/jexec cmp3_loner3.in -cwd -out /Users/hyu/.schrodinger/tmp/cmp3_loner3

[running at reduced cpu priority]
[running at reduced cpu priority]
Job cmp3_loner3 started on haoyus-mbp.schrodinger.com at Wed Oct 30 13:54:18 2019
jobid: haoyus-mbp-0-5db9ce48 
Jaguar version 10.5, release  13
Molecular Point Group: Cs      
Point Group used: Cs
pre (input checking) done.
onee (1-electron integrals) done.
hfig (HF initial guess) done.
probe (project orbitals) done.
grid (grid generation) done.
rwr (Q operators) done.
scf type: DFT=Becke_3_Parameter/HF+Slater+Becke88+VWN+LYP+D3 (B3LYP-D3)
  
       i  u  d  i  g
       t  p  i  c  r                                 RMS    maximum
       e  d  i  u  i                       energy  density   DIIS  
       r  t  s  t  d       total energy    change  change    error 
  
etot    1  N  N  5  M    -133.33187234588           9.0E-03  1.3E-01
etot    2  Y  Y  6  M    -133.84838438847  5.2E-01  5.1E-03  4.8E-02
etot    3  Y  Y  6  M    -133.90566932234  5.7E-02  1.9E-03  3.0E-02
etot    4  N  Y  2  U    -133.92516306234  1.9E-02  5.9E-04  6.8E-03
etot    5  Y  Y  6  M    -133.92592225456  7.6E-04  2.6E-04  2.8E-03
etot    6  Y  Y  6  M    -133.92610485588  1.8E-04  1.2E-04  7.1E-04
etot    7  N  Y  2  U    -133.92612235226  1.7E-05  2.3E-05  2.5E-04
etot    8  N  Y  2  U    -133.92612343305  1.1E-06  4.5E-06  2.5E-05
etot    9  N  N  2  U    -133.92612344244  9.4E-09  0.0E+00  0.0E+00
scf (DFT) done.
der1a (1-e 1st deriv.) done.
rwr (1st deriv. Q) done.
der1b (2-e 1st deriv.) done.
  Geometry optimization step   1
  Total energy:      -133.92797905884 hartrees
  gradient maximum:        1.2324E-02 .  (  4.5000E-04 )
  gradient rms:            7.3526E-03 .  (  3.0000E-04 )
  displacement maximum:    5.0410E-02 .  (  1.8000E-03 )
  displacement rms:        3.1164E-02 .  (  1.2000E-03 )
  
  predicted energy change: -2.2929E-03
  step size:     0.14281
  trust radius:  0.30000
---------------- geometry iteration   1 complete ----------------
geopt (optimize geometry) done.
onee (1-electron integrals) done.
probe (project orbitals) done.
grid (grid generation) done.
rwr (Q operators) done.
  
       i  u  d  i  g
       t  p  i  c  r                                 RMS    maximum
       e  d  i  u  i                       energy  density   DIIS  
       r  t  s  t  d       total energy    change  change    error 
  
etot    1  N  N  2  U    -133.92670723616           8.0E-04  5.8E-03
etot    2  Y  Y  6  M    -133.92837696104  1.7E-03  1.9E-04  1.3E-03
etot    3  Y  Y  6  M    -133.92836387075 -1.3E-05  1.0E-04  1.8E-03
etot    4  Y  Y  6  M    -133.92843211585  6.8E-05  2.0E-05  2.4E-04
etot    5  N  Y  2  U    -133.92841832930 -1.4E-05  6.2E-06  8.2E-05
etot    6  N  Y  2  U    -133.92841847332  1.4E-07  7.4E-06  4.2E-05
etot    7  N  Y  2  U    -133.92841850143  2.8E-08  1.6E-06  2.5E-05
etot    8  N  N  2  U    -133.92841851281  1.1E-08  0.0E+00  0.0E+00
scf (DFT) done.
der1a (1-e 1st deriv.) done.
rwr (1st deriv. Q) done.
der1b (2-e 1st deriv.) done.
  Geometry optimization step   2
  Total energy:      -133.93034068840 hartrees
  energy change:          -2.3616E-03 .  (  5.0000E-05 )
  gradient maximum:        2.4627E-03 .  (  4.5000E-04 )
  gradient rms:            1.1335E-03 .  (  3.0000E-04 )
  displacement maximum:    1.1210E-02 .  (  1.8000E-03 )
  displacement rms:        5.0864E-03 .  (  1.2000E-03 )
  
  predicted energy change: -4.9113E-05
  step size:     0.02331
  trust radius:  0.30000
---------------- geometry iteration   2 complete ----------------
geopt (optimize geometry) done.
onee (1-electron integrals) done.
probe (project orbitals) done.
grid (grid generation) done.
rwr (Q operators) done.
  
       i  u  d  i  g
       t  p  i  c  r                                 RMS    maximum
       e  d  i  u  i                       energy  density   DIIS  
       r  t  s  t  d       total energy    change  change    error 
  
etot    1  N  N  2  U    -133.92845037776           9.4E-05  9.4E-04
etot    2  Y  Y  6  M    -133.92847756912  2.7E-05  2.0E-05  1.5E-04
etot    3  N  Y  2  U    -133.92847711235 -4.6E-07  1.1E-05  1.9E-04
etot    4  N  Y  2  U    -133.92847785466  7.4E-07  2.3E-06  3.3E-05
etot    5  N  N  2  U    -133.92847787986  2.5E-08  0.0E+00  0.0E+00
scf (DFT) done.
der1a (1-e 1st deriv.) done.
rwr (1st deriv. Q) done.
der1b (2-e 1st deriv.) done.
  Geometry optimization step   3
  Total energy:      -133.93039924563 hartrees
  energy change:          -5.8557E-05 .  (  5.0000E-05 )
  gradient maximum:        6.9687E-04 .  (  4.5000E-04 )
  gradient rms:            3.1266E-04 .  (  3.0000E-04 )
  displacement maximum:    3.0469E-03 .  (  1.8000E-03 )
  displacement rms:        1.2742E-03 .  (  1.2000E-03 )
  
  predicted energy change: -3.8911E-06
  step size:     0.00584
  trust radius:  0.30000
---------------- geometry iteration   3 complete ----------------
geopt (optimize geometry) done.
onee (1-electron integrals) done.
probe (project orbitals) done.
grid (grid generation) done.
rwr (Q operators) done.
  
       i  u  d  i  g
       t  p  i  c  r                                 RMS    maximum
       e  d  i  u  i                       energy  density   DIIS  
       r  t  s  t  d       total energy    change  change    error 
  
etot    1  N  N  2  U    -133.92848132925           3.0E-05  2.3E-04
etot    2  N  Y  2  U    -133.92848377299  2.4E-06  4.7E-06  3.2E-05
etot    3  N  N  2  U    -133.92848379402  2.1E-08  0.0E+00  0.0E+00
scf (DFT) done.
der1a (1-e 1st deriv.) done.
rwr (1st deriv. Q) done.
der1b (2-e 1st deriv.) done.
  Geometry optimization step   4
  Total energy:      -133.93040414692 hartrees
  energy change:          -4.9013E-06 *  (  5.0000E-05 )
  gradient maximum:        1.6846E-04 *  (  4.5000E-04 )
  gradient rms:            9.9881E-05 *  (  3.0000E-04 )
  displacement maximum:    1.5719E-03 *  (  1.8000E-03 )
  displacement rms:        7.0733E-04 *  (  1.2000E-03 )
  
  predicted energy change: -6.3319E-07
  step size:     0.00324
  trust radius:  0.30000
------------- final geometry iteration   4 complete -------------
geopt (optimize geometry) done.
ch (properties) done.
Job cmp3_loner3 completed on haoyus-mbp.schrodinger.com at Wed Oct 30 13:54:37 2019
Timer (jaguar_backend.py) : 19.11 secs
Finished:   Wed Oct 30 13:54:37 2019
[running at reduced cpu priority]
